VARIABLES = "X" "Y" "Z" 
ZONE I=3, J=2, K=3, DATAPACKING=POINT 	 
1.000000	-0.043661	-1.000000	
3.000000	-0.130983	-1.000000	
5.000000	-0.218305	-1.000000	
1.000000	0.043661	-1.000000	
3.000000	0.130983	-1.000000	
5.000000	0.218305	-1.000000	
1.000000	-0.043661	0.000000	
3.000000	-0.130983	0.000000	
5.000000	-0.218305	0.000000	
1.000000	0.043661	0.000000	
3.000000	0.130983	0.000000	
5.000000	0.218305	0.000000	
1.000000	-0.043661	1.000000	
3.000000	-0.130983	1.000000	
5.000000	-0.218305	1.000000	
1.000000	0.043661	1.000000	
3.000000	0.130983	1.000000	
5.000000	0.218305	1.000000	
