VARIABLES = "X" "Y" "Z" 
ZONE I=101, J=2, K=51, DATAPACKING=POINT 	 
1.000000	-0.043661	-1.000000	
1.040000	-0.045407	-1.000000	
1.080000	-0.047154	-1.000000	
1.120000	-0.048900	-1.000000	
1.160000	-0.050647	-1.000000	
1.200000	-0.052393	-1.000000	
1.240000	-0.054140	-1.000000	
1.280000	-0.055886	-1.000000	
1.320000	-0.057632	-1.000000	
1.360000	-0.059379	-1.000000	
1.400000	-0.061125	-1.000000	
1.440000	-0.062872	-1.000000	
1.480000	-0.064618	-1.000000	
1.520000	-0.066365	-1.000000	
1.560000	-0.068111	-1.000000	
1.600000	-0.069858	-1.000000	
1.640000	-0.071604	-1.000000	
1.680000	-0.073350	-1.000000	
1.720000	-0.075097	-1.000000	
1.760000	-0.076843	-1.000000	
1.800000	-0.078590	-1.000000	
1.840000	-0.080336	-1.000000	
1.880000	-0.082083	-1.000000	
1.920000	-0.083829	-1.000000	
1.960000	-0.085575	-1.000000	
2.000000	-0.087322	-1.000000	
2.040000	-0.089068	-1.000000	
2.080000	-0.090815	-1.000000	
2.120000	-0.092561	-1.000000	
2.160000	-0.094308	-1.000000	
2.200000	-0.096054	-1.000000	
2.240000	-0.097801	-1.000000	
2.280000	-0.099547	-1.000000	
2.320000	-0.101293	-1.000000	
2.360000	-0.103040	-1.000000	
2.400000	-0.104786	-1.000000	
2.440000	-0.106533	-1.000000	
2.480000	-0.108279	-1.000000	
2.520000	-0.110026	-1.000000	
2.560000	-0.111772	-1.000000	
2.600000	-0.113518	-1.000000	
2.640000	-0.115265	-1.000000	
2.680000	-0.117011	-1.000000	
2.720000	-0.118758	-1.000000	
2.760000	-0.120504	-1.000000	
2.800000	-0.122251	-1.000000	
2.840000	-0.123997	-1.000000	
2.880000	-0.125744	-1.000000	
2.920000	-0.127490	-1.000000	
2.960000	-0.129236	-1.000000	
3.000000	-0.130983	-1.000000	
3.040000	-0.132729	-1.000000	
3.080000	-0.134476	-1.000000	
3.120000	-0.136222	-1.000000	
3.160000	-0.137969	-1.000000	
3.200000	-0.139715	-1.000000	
3.240000	-0.141461	-1.000000	
3.280000	-0.143208	-1.000000	
3.320000	-0.144954	-1.000000	
3.360000	-0.146701	-1.000000	
3.400000	-0.148447	-1.000000	
3.440000	-0.150194	-1.000000	
3.480000	-0.151940	-1.000000	
3.520000	-0.153687	-1.000000	
3.560000	-0.155433	-1.000000	
3.600000	-0.157179	-1.000000	
3.640000	-0.158926	-1.000000	
3.680000	-0.160672	-1.000000	
3.720000	-0.162419	-1.000000	
3.760000	-0.164165	-1.000000	
3.800000	-0.165912	-1.000000	
3.840000	-0.167658	-1.000000	
3.880000	-0.169404	-1.000000	
3.920000	-0.171151	-1.000000	
3.960000	-0.172897	-1.000000	
4.000000	-0.174644	-1.000000	
4.040000	-0.176390	-1.000000	
4.080000	-0.178137	-1.000000	
4.120000	-0.179883	-1.000000	
4.160000	-0.181630	-1.000000	
4.200000	-0.183376	-1.000000	
4.240000	-0.185122	-1.000000	
4.280000	-0.186869	-1.000000	
4.320000	-0.188615	-1.000000	
4.360000	-0.190362	-1.000000	
4.400000	-0.192108	-1.000000	
4.440000	-0.193855	-1.000000	
4.480000	-0.195601	-1.000000	
4.520000	-0.197347	-1.000000	
4.560000	-0.199094	-1.000000	
4.600000	-0.200840	-1.000000	
4.640000	-0.202587	-1.000000	
4.680000	-0.204333	-1.000000	
4.720000	-0.206080	-1.000000	
4.760000	-0.207826	-1.000000	
4.800000	-0.209573	-1.000000	
4.840000	-0.211319	-1.000000	
4.880000	-0.213065	-1.000000	
4.920000	-0.214812	-1.000000	
4.960000	-0.216558	-1.000000	
5.000000	-0.218305	-1.000000	
1.000000	0.043661	-1.000000	
1.040000	0.045407	-1.000000	
1.080000	0.047154	-1.000000	
1.120000	0.048900	-1.000000	
1.160000	0.050647	-1.000000	
1.200000	0.052393	-1.000000	
1.240000	0.054140	-1.000000	
1.280000	0.055886	-1.000000	
1.320000	0.057632	-1.000000	
1.360000	0.059379	-1.000000	
1.400000	0.061125	-1.000000	
1.440000	0.062872	-1.000000	
1.480000	0.064618	-1.000000	
1.520000	0.066365	-1.000000	
1.560000	0.068111	-1.000000	
1.600000	0.069858	-1.000000	
1.640000	0.071604	-1.000000	
1.680000	0.073350	-1.000000	
1.720000	0.075097	-1.000000	
1.760000	0.076843	-1.000000	
1.800000	0.078590	-1.000000	
1.840000	0.080336	-1.000000	
1.880000	0.082083	-1.000000	
1.920000	0.083829	-1.000000	
1.960000	0.085575	-1.000000	
2.000000	0.087322	-1.000000	
2.040000	0.089068	-1.000000	
2.080000	0.090815	-1.000000	
2.120000	0.092561	-1.000000	
2.160000	0.094308	-1.000000	
2.200000	0.096054	-1.000000	
2.240000	0.097801	-1.000000	
2.280000	0.099547	-1.000000	
2.320000	0.101293	-1.000000	
2.360000	0.103040	-1.000000	
2.400000	0.104786	-1.000000	
2.440000	0.106533	-1.000000	
2.480000	0.108279	-1.000000	
2.520000	0.110026	-1.000000	
2.560000	0.111772	-1.000000	
2.600000	0.113518	-1.000000	
2.640000	0.115265	-1.000000	
2.680000	0.117011	-1.000000	
2.720000	0.118758	-1.000000	
2.760000	0.120504	-1.000000	
2.800000	0.122251	-1.000000	
2.840000	0.123997	-1.000000	
2.880000	0.125744	-1.000000	
2.920000	0.127490	-1.000000	
2.960000	0.129236	-1.000000	
3.000000	0.130983	-1.000000	
3.040000	0.132729	-1.000000	
3.080000	0.134476	-1.000000	
3.120000	0.136222	-1.000000	
3.160000	0.137969	-1.000000	
3.200000	0.139715	-1.000000	
3.240000	0.141461	-1.000000	
3.280000	0.143208	-1.000000	
3.320000	0.144954	-1.000000	
3.360000	0.146701	-1.000000	
3.400000	0.148447	-1.000000	
3.440000	0.150194	-1.000000	
3.480000	0.151940	-1.000000	
3.520000	0.153687	-1.000000	
3.560000	0.155433	-1.000000	
3.600000	0.157179	-1.000000	
3.640000	0.158926	-1.000000	
3.680000	0.160672	-1.000000	
3.720000	0.162419	-1.000000	
3.760000	0.164165	-1.000000	
3.800000	0.165912	-1.000000	
3.840000	0.167658	-1.000000	
3.880000	0.169404	-1.000000	
3.920000	0.171151	-1.000000	
3.960000	0.172897	-1.000000	
4.000000	0.174644	-1.000000	
4.040000	0.176390	-1.000000	
4.080000	0.178137	-1.000000	
4.120000	0.179883	-1.000000	
4.160000	0.181630	-1.000000	
4.200000	0.183376	-1.000000	
4.240000	0.185122	-1.000000	
4.280000	0.186869	-1.000000	
4.320000	0.188615	-1.000000	
4.360000	0.190362	-1.000000	
4.400000	0.192108	-1.000000	
4.440000	0.193855	-1.000000	
4.480000	0.195601	-1.000000	
4.520000	0.197347	-1.000000	
4.560000	0.199094	-1.000000	
4.600000	0.200840	-1.000000	
4.640000	0.202587	-1.000000	
4.680000	0.204333	-1.000000	
4.720000	0.206080	-1.000000	
4.760000	0.207826	-1.000000	
4.800000	0.209573	-1.000000	
4.840000	0.211319	-1.000000	
4.880000	0.213065	-1.000000	
4.920000	0.214812	-1.000000	
4.960000	0.216558	-1.000000	
5.000000	0.218305	-1.000000	
1.000000	-0.043661	-0.960000	
1.040000	-0.045407	-0.960000	
1.080000	-0.047154	-0.960000	
1.120000	-0.048900	-0.960000	
1.160000	-0.050647	-0.960000	
1.200000	-0.052393	-0.960000	
1.240000	-0.054140	-0.960000	
1.280000	-0.055886	-0.960000	
1.320000	-0.057632	-0.960000	
1.360000	-0.059379	-0.960000	
1.400000	-0.061125	-0.960000	
1.440000	-0.062872	-0.960000	
1.480000	-0.064618	-0.960000	
1.520000	-0.066365	-0.960000	
1.560000	-0.068111	-0.960000	
1.600000	-0.069858	-0.960000	
1.640000	-0.071604	-0.960000	
1.680000	-0.073350	-0.960000	
1.720000	-0.075097	-0.960000	
1.760000	-0.076843	-0.960000	
1.800000	-0.078590	-0.960000	
1.840000	-0.080336	-0.960000	
1.880000	-0.082083	-0.960000	
1.920000	-0.083829	-0.960000	
1.960000	-0.085575	-0.960000	
2.000000	-0.087322	-0.960000	
2.040000	-0.089068	-0.960000	
2.080000	-0.090815	-0.960000	
2.120000	-0.092561	-0.960000	
2.160000	-0.094308	-0.960000	
2.200000	-0.096054	-0.960000	
2.240000	-0.097801	-0.960000	
2.280000	-0.099547	-0.960000	
2.320000	-0.101293	-0.960000	
2.360000	-0.103040	-0.960000	
2.400000	-0.104786	-0.960000	
2.440000	-0.106533	-0.960000	
2.480000	-0.108279	-0.960000	
2.520000	-0.110026	-0.960000	
2.560000	-0.111772	-0.960000	
2.600000	-0.113518	-0.960000	
2.640000	-0.115265	-0.960000	
2.680000	-0.117011	-0.960000	
2.720000	-0.118758	-0.960000	
2.760000	-0.120504	-0.960000	
2.800000	-0.122251	-0.960000	
2.840000	-0.123997	-0.960000	
2.880000	-0.125744	-0.960000	
2.920000	-0.127490	-0.960000	
2.960000	-0.129236	-0.960000	
3.000000	-0.130983	-0.960000	
3.040000	-0.132729	-0.960000	
3.080000	-0.134476	-0.960000	
3.120000	-0.136222	-0.960000	
3.160000	-0.137969	-0.960000	
3.200000	-0.139715	-0.960000	
3.240000	-0.141461	-0.960000	
3.280000	-0.143208	-0.960000	
3.320000	-0.144954	-0.960000	
3.360000	-0.146701	-0.960000	
3.400000	-0.148447	-0.960000	
3.440000	-0.150194	-0.960000	
3.480000	-0.151940	-0.960000	
3.520000	-0.153687	-0.960000	
3.560000	-0.155433	-0.960000	
3.600000	-0.157179	-0.960000	
3.640000	-0.158926	-0.960000	
3.680000	-0.160672	-0.960000	
3.720000	-0.162419	-0.960000	
3.760000	-0.164165	-0.960000	
3.800000	-0.165912	-0.960000	
3.840000	-0.167658	-0.960000	
3.880000	-0.169404	-0.960000	
3.920000	-0.171151	-0.960000	
3.960000	-0.172897	-0.960000	
4.000000	-0.174644	-0.960000	
4.040000	-0.176390	-0.960000	
4.080000	-0.178137	-0.960000	
4.120000	-0.179883	-0.960000	
4.160000	-0.181630	-0.960000	
4.200000	-0.183376	-0.960000	
4.240000	-0.185122	-0.960000	
4.280000	-0.186869	-0.960000	
4.320000	-0.188615	-0.960000	
4.360000	-0.190362	-0.960000	
4.400000	-0.192108	-0.960000	
4.440000	-0.193855	-0.960000	
4.480000	-0.195601	-0.960000	
4.520000	-0.197347	-0.960000	
4.560000	-0.199094	-0.960000	
4.600000	-0.200840	-0.960000	
4.640000	-0.202587	-0.960000	
4.680000	-0.204333	-0.960000	
4.720000	-0.206080	-0.960000	
4.760000	-0.207826	-0.960000	
4.800000	-0.209573	-0.960000	
4.840000	-0.211319	-0.960000	
4.880000	-0.213065	-0.960000	
4.920000	-0.214812	-0.960000	
4.960000	-0.216558	-0.960000	
5.000000	-0.218305	-0.960000	
1.000000	0.043661	-0.960000	
1.040000	0.045407	-0.960000	
1.080000	0.047154	-0.960000	
1.120000	0.048900	-0.960000	
1.160000	0.050647	-0.960000	
1.200000	0.052393	-0.960000	
1.240000	0.054140	-0.960000	
1.280000	0.055886	-0.960000	
1.320000	0.057632	-0.960000	
1.360000	0.059379	-0.960000	
1.400000	0.061125	-0.960000	
1.440000	0.062872	-0.960000	
1.480000	0.064618	-0.960000	
1.520000	0.066365	-0.960000	
1.560000	0.068111	-0.960000	
1.600000	0.069858	-0.960000	
1.640000	0.071604	-0.960000	
1.680000	0.073350	-0.960000	
1.720000	0.075097	-0.960000	
1.760000	0.076843	-0.960000	
1.800000	0.078590	-0.960000	
1.840000	0.080336	-0.960000	
1.880000	0.082083	-0.960000	
1.920000	0.083829	-0.960000	
1.960000	0.085575	-0.960000	
2.000000	0.087322	-0.960000	
2.040000	0.089068	-0.960000	
2.080000	0.090815	-0.960000	
2.120000	0.092561	-0.960000	
2.160000	0.094308	-0.960000	
2.200000	0.096054	-0.960000	
2.240000	0.097801	-0.960000	
2.280000	0.099547	-0.960000	
2.320000	0.101293	-0.960000	
2.360000	0.103040	-0.960000	
2.400000	0.104786	-0.960000	
2.440000	0.106533	-0.960000	
2.480000	0.108279	-0.960000	
2.520000	0.110026	-0.960000	
2.560000	0.111772	-0.960000	
2.600000	0.113518	-0.960000	
2.640000	0.115265	-0.960000	
2.680000	0.117011	-0.960000	
2.720000	0.118758	-0.960000	
2.760000	0.120504	-0.960000	
2.800000	0.122251	-0.960000	
2.840000	0.123997	-0.960000	
2.880000	0.125744	-0.960000	
2.920000	0.127490	-0.960000	
2.960000	0.129236	-0.960000	
3.000000	0.130983	-0.960000	
3.040000	0.132729	-0.960000	
3.080000	0.134476	-0.960000	
3.120000	0.136222	-0.960000	
3.160000	0.137969	-0.960000	
3.200000	0.139715	-0.960000	
3.240000	0.141461	-0.960000	
3.280000	0.143208	-0.960000	
3.320000	0.144954	-0.960000	
3.360000	0.146701	-0.960000	
3.400000	0.148447	-0.960000	
3.440000	0.150194	-0.960000	
3.480000	0.151940	-0.960000	
3.520000	0.153687	-0.960000	
3.560000	0.155433	-0.960000	
3.600000	0.157179	-0.960000	
3.640000	0.158926	-0.960000	
3.680000	0.160672	-0.960000	
3.720000	0.162419	-0.960000	
3.760000	0.164165	-0.960000	
3.800000	0.165912	-0.960000	
3.840000	0.167658	-0.960000	
3.880000	0.169404	-0.960000	
3.920000	0.171151	-0.960000	
3.960000	0.172897	-0.960000	
4.000000	0.174644	-0.960000	
4.040000	0.176390	-0.960000	
4.080000	0.178137	-0.960000	
4.120000	0.179883	-0.960000	
4.160000	0.181630	-0.960000	
4.200000	0.183376	-0.960000	
4.240000	0.185122	-0.960000	
4.280000	0.186869	-0.960000	
4.320000	0.188615	-0.960000	
4.360000	0.190362	-0.960000	
4.400000	0.192108	-0.960000	
4.440000	0.193855	-0.960000	
4.480000	0.195601	-0.960000	
4.520000	0.197347	-0.960000	
4.560000	0.199094	-0.960000	
4.600000	0.200840	-0.960000	
4.640000	0.202587	-0.960000	
4.680000	0.204333	-0.960000	
4.720000	0.206080	-0.960000	
4.760000	0.207826	-0.960000	
4.800000	0.209573	-0.960000	
4.840000	0.211319	-0.960000	
4.880000	0.213065	-0.960000	
4.920000	0.214812	-0.960000	
4.960000	0.216558	-0.960000	
5.000000	0.218305	-0.960000	
1.000000	-0.043661	-0.920000	
1.040000	-0.045407	-0.920000	
1.080000	-0.047154	-0.920000	
1.120000	-0.048900	-0.920000	
1.160000	-0.050647	-0.920000	
1.200000	-0.052393	-0.920000	
1.240000	-0.054140	-0.920000	
1.280000	-0.055886	-0.920000	
1.320000	-0.057632	-0.920000	
1.360000	-0.059379	-0.920000	
1.400000	-0.061125	-0.920000	
1.440000	-0.062872	-0.920000	
1.480000	-0.064618	-0.920000	
1.520000	-0.066365	-0.920000	
1.560000	-0.068111	-0.920000	
1.600000	-0.069858	-0.920000	
1.640000	-0.071604	-0.920000	
1.680000	-0.073350	-0.920000	
1.720000	-0.075097	-0.920000	
1.760000	-0.076843	-0.920000	
1.800000	-0.078590	-0.920000	
1.840000	-0.080336	-0.920000	
1.880000	-0.082083	-0.920000	
1.920000	-0.083829	-0.920000	
1.960000	-0.085575	-0.920000	
2.000000	-0.087322	-0.920000	
2.040000	-0.089068	-0.920000	
2.080000	-0.090815	-0.920000	
2.120000	-0.092561	-0.920000	
2.160000	-0.094308	-0.920000	
2.200000	-0.096054	-0.920000	
2.240000	-0.097801	-0.920000	
2.280000	-0.099547	-0.920000	
2.320000	-0.101293	-0.920000	
2.360000	-0.103040	-0.920000	
2.400000	-0.104786	-0.920000	
2.440000	-0.106533	-0.920000	
2.480000	-0.108279	-0.920000	
2.520000	-0.110026	-0.920000	
2.560000	-0.111772	-0.920000	
2.600000	-0.113518	-0.920000	
2.640000	-0.115265	-0.920000	
2.680000	-0.117011	-0.920000	
2.720000	-0.118758	-0.920000	
2.760000	-0.120504	-0.920000	
2.800000	-0.122251	-0.920000	
2.840000	-0.123997	-0.920000	
2.880000	-0.125744	-0.920000	
2.920000	-0.127490	-0.920000	
2.960000	-0.129236	-0.920000	
3.000000	-0.130983	-0.920000	
3.040000	-0.132729	-0.920000	
3.080000	-0.134476	-0.920000	
3.120000	-0.136222	-0.920000	
3.160000	-0.137969	-0.920000	
3.200000	-0.139715	-0.920000	
3.240000	-0.141461	-0.920000	
3.280000	-0.143208	-0.920000	
3.320000	-0.144954	-0.920000	
3.360000	-0.146701	-0.920000	
3.400000	-0.148447	-0.920000	
3.440000	-0.150194	-0.920000	
3.480000	-0.151940	-0.920000	
3.520000	-0.153687	-0.920000	
3.560000	-0.155433	-0.920000	
3.600000	-0.157179	-0.920000	
3.640000	-0.158926	-0.920000	
3.680000	-0.160672	-0.920000	
3.720000	-0.162419	-0.920000	
3.760000	-0.164165	-0.920000	
3.800000	-0.165912	-0.920000	
3.840000	-0.167658	-0.920000	
3.880000	-0.169404	-0.920000	
3.920000	-0.171151	-0.920000	
3.960000	-0.172897	-0.920000	
4.000000	-0.174644	-0.920000	
4.040000	-0.176390	-0.920000	
4.080000	-0.178137	-0.920000	
4.120000	-0.179883	-0.920000	
4.160000	-0.181630	-0.920000	
4.200000	-0.183376	-0.920000	
4.240000	-0.185122	-0.920000	
4.280000	-0.186869	-0.920000	
4.320000	-0.188615	-0.920000	
4.360000	-0.190362	-0.920000	
4.400000	-0.192108	-0.920000	
4.440000	-0.193855	-0.920000	
4.480000	-0.195601	-0.920000	
4.520000	-0.197347	-0.920000	
4.560000	-0.199094	-0.920000	
4.600000	-0.200840	-0.920000	
4.640000	-0.202587	-0.920000	
4.680000	-0.204333	-0.920000	
4.720000	-0.206080	-0.920000	
4.760000	-0.207826	-0.920000	
4.800000	-0.209573	-0.920000	
4.840000	-0.211319	-0.920000	
4.880000	-0.213065	-0.920000	
4.920000	-0.214812	-0.920000	
4.960000	-0.216558	-0.920000	
5.000000	-0.218305	-0.920000	
1.000000	0.043661	-0.920000	
1.040000	0.045407	-0.920000	
1.080000	0.047154	-0.920000	
1.120000	0.048900	-0.920000	
1.160000	0.050647	-0.920000	
1.200000	0.052393	-0.920000	
1.240000	0.054140	-0.920000	
1.280000	0.055886	-0.920000	
1.320000	0.057632	-0.920000	
1.360000	0.059379	-0.920000	
1.400000	0.061125	-0.920000	
1.440000	0.062872	-0.920000	
1.480000	0.064618	-0.920000	
1.520000	0.066365	-0.920000	
1.560000	0.068111	-0.920000	
1.600000	0.069858	-0.920000	
1.640000	0.071604	-0.920000	
1.680000	0.073350	-0.920000	
1.720000	0.075097	-0.920000	
1.760000	0.076843	-0.920000	
1.800000	0.078590	-0.920000	
1.840000	0.080336	-0.920000	
1.880000	0.082083	-0.920000	
1.920000	0.083829	-0.920000	
1.960000	0.085575	-0.920000	
2.000000	0.087322	-0.920000	
2.040000	0.089068	-0.920000	
2.080000	0.090815	-0.920000	
2.120000	0.092561	-0.920000	
2.160000	0.094308	-0.920000	
2.200000	0.096054	-0.920000	
2.240000	0.097801	-0.920000	
2.280000	0.099547	-0.920000	
2.320000	0.101293	-0.920000	
2.360000	0.103040	-0.920000	
2.400000	0.104786	-0.920000	
2.440000	0.106533	-0.920000	
2.480000	0.108279	-0.920000	
2.520000	0.110026	-0.920000	
2.560000	0.111772	-0.920000	
2.600000	0.113518	-0.920000	
2.640000	0.115265	-0.920000	
2.680000	0.117011	-0.920000	
2.720000	0.118758	-0.920000	
2.760000	0.120504	-0.920000	
2.800000	0.122251	-0.920000	
2.840000	0.123997	-0.920000	
2.880000	0.125744	-0.920000	
2.920000	0.127490	-0.920000	
2.960000	0.129236	-0.920000	
3.000000	0.130983	-0.920000	
3.040000	0.132729	-0.920000	
3.080000	0.134476	-0.920000	
3.120000	0.136222	-0.920000	
3.160000	0.137969	-0.920000	
3.200000	0.139715	-0.920000	
3.240000	0.141461	-0.920000	
3.280000	0.143208	-0.920000	
3.320000	0.144954	-0.920000	
3.360000	0.146701	-0.920000	
3.400000	0.148447	-0.920000	
3.440000	0.150194	-0.920000	
3.480000	0.151940	-0.920000	
3.520000	0.153687	-0.920000	
3.560000	0.155433	-0.920000	
3.600000	0.157179	-0.920000	
3.640000	0.158926	-0.920000	
3.680000	0.160672	-0.920000	
3.720000	0.162419	-0.920000	
3.760000	0.164165	-0.920000	
3.800000	0.165912	-0.920000	
3.840000	0.167658	-0.920000	
3.880000	0.169404	-0.920000	
3.920000	0.171151	-0.920000	
3.960000	0.172897	-0.920000	
4.000000	0.174644	-0.920000	
4.040000	0.176390	-0.920000	
4.080000	0.178137	-0.920000	
4.120000	0.179883	-0.920000	
4.160000	0.181630	-0.920000	
4.200000	0.183376	-0.920000	
4.240000	0.185122	-0.920000	
4.280000	0.186869	-0.920000	
4.320000	0.188615	-0.920000	
4.360000	0.190362	-0.920000	
4.400000	0.192108	-0.920000	
4.440000	0.193855	-0.920000	
4.480000	0.195601	-0.920000	
4.520000	0.197347	-0.920000	
4.560000	0.199094	-0.920000	
4.600000	0.200840	-0.920000	
4.640000	0.202587	-0.920000	
4.680000	0.204333	-0.920000	
4.720000	0.206080	-0.920000	
4.760000	0.207826	-0.920000	
4.800000	0.209573	-0.920000	
4.840000	0.211319	-0.920000	
4.880000	0.213065	-0.920000	
4.920000	0.214812	-0.920000	
4.960000	0.216558	-0.920000	
5.000000	0.218305	-0.920000	
1.000000	-0.043661	-0.880000	
1.040000	-0.045407	-0.880000	
1.080000	-0.047154	-0.880000	
1.120000	-0.048900	-0.880000	
1.160000	-0.050647	-0.880000	
1.200000	-0.052393	-0.880000	
1.240000	-0.054140	-0.880000	
1.280000	-0.055886	-0.880000	
1.320000	-0.057632	-0.880000	
1.360000	-0.059379	-0.880000	
1.400000	-0.061125	-0.880000	
1.440000	-0.062872	-0.880000	
1.480000	-0.064618	-0.880000	
1.520000	-0.066365	-0.880000	
1.560000	-0.068111	-0.880000	
1.600000	-0.069858	-0.880000	
1.640000	-0.071604	-0.880000	
1.680000	-0.073350	-0.880000	
1.720000	-0.075097	-0.880000	
1.760000	-0.076843	-0.880000	
1.800000	-0.078590	-0.880000	
1.840000	-0.080336	-0.880000	
1.880000	-0.082083	-0.880000	
1.920000	-0.083829	-0.880000	
1.960000	-0.085575	-0.880000	
2.000000	-0.087322	-0.880000	
2.040000	-0.089068	-0.880000	
2.080000	-0.090815	-0.880000	
2.120000	-0.092561	-0.880000	
2.160000	-0.094308	-0.880000	
2.200000	-0.096054	-0.880000	
2.240000	-0.097801	-0.880000	
2.280000	-0.099547	-0.880000	
2.320000	-0.101293	-0.880000	
2.360000	-0.103040	-0.880000	
2.400000	-0.104786	-0.880000	
2.440000	-0.106533	-0.880000	
2.480000	-0.108279	-0.880000	
2.520000	-0.110026	-0.880000	
2.560000	-0.111772	-0.880000	
2.600000	-0.113518	-0.880000	
2.640000	-0.115265	-0.880000	
2.680000	-0.117011	-0.880000	
2.720000	-0.118758	-0.880000	
2.760000	-0.120504	-0.880000	
2.800000	-0.122251	-0.880000	
2.840000	-0.123997	-0.880000	
2.880000	-0.125744	-0.880000	
2.920000	-0.127490	-0.880000	
2.960000	-0.129236	-0.880000	
3.000000	-0.130983	-0.880000	
3.040000	-0.132729	-0.880000	
3.080000	-0.134476	-0.880000	
3.120000	-0.136222	-0.880000	
3.160000	-0.137969	-0.880000	
3.200000	-0.139715	-0.880000	
3.240000	-0.141461	-0.880000	
3.280000	-0.143208	-0.880000	
3.320000	-0.144954	-0.880000	
3.360000	-0.146701	-0.880000	
3.400000	-0.148447	-0.880000	
3.440000	-0.150194	-0.880000	
3.480000	-0.151940	-0.880000	
3.520000	-0.153687	-0.880000	
3.560000	-0.155433	-0.880000	
3.600000	-0.157179	-0.880000	
3.640000	-0.158926	-0.880000	
3.680000	-0.160672	-0.880000	
3.720000	-0.162419	-0.880000	
3.760000	-0.164165	-0.880000	
3.800000	-0.165912	-0.880000	
3.840000	-0.167658	-0.880000	
3.880000	-0.169404	-0.880000	
3.920000	-0.171151	-0.880000	
3.960000	-0.172897	-0.880000	
4.000000	-0.174644	-0.880000	
4.040000	-0.176390	-0.880000	
4.080000	-0.178137	-0.880000	
4.120000	-0.179883	-0.880000	
4.160000	-0.181630	-0.880000	
4.200000	-0.183376	-0.880000	
4.240000	-0.185122	-0.880000	
4.280000	-0.186869	-0.880000	
4.320000	-0.188615	-0.880000	
4.360000	-0.190362	-0.880000	
4.400000	-0.192108	-0.880000	
4.440000	-0.193855	-0.880000	
4.480000	-0.195601	-0.880000	
4.520000	-0.197347	-0.880000	
4.560000	-0.199094	-0.880000	
4.600000	-0.200840	-0.880000	
4.640000	-0.202587	-0.880000	
4.680000	-0.204333	-0.880000	
4.720000	-0.206080	-0.880000	
4.760000	-0.207826	-0.880000	
4.800000	-0.209573	-0.880000	
4.840000	-0.211319	-0.880000	
4.880000	-0.213065	-0.880000	
4.920000	-0.214812	-0.880000	
4.960000	-0.216558	-0.880000	
5.000000	-0.218305	-0.880000	
1.000000	0.043661	-0.880000	
1.040000	0.045407	-0.880000	
1.080000	0.047154	-0.880000	
1.120000	0.048900	-0.880000	
1.160000	0.050647	-0.880000	
1.200000	0.052393	-0.880000	
1.240000	0.054140	-0.880000	
1.280000	0.055886	-0.880000	
1.320000	0.057632	-0.880000	
1.360000	0.059379	-0.880000	
1.400000	0.061125	-0.880000	
1.440000	0.062872	-0.880000	
1.480000	0.064618	-0.880000	
1.520000	0.066365	-0.880000	
1.560000	0.068111	-0.880000	
1.600000	0.069858	-0.880000	
1.640000	0.071604	-0.880000	
1.680000	0.073350	-0.880000	
1.720000	0.075097	-0.880000	
1.760000	0.076843	-0.880000	
1.800000	0.078590	-0.880000	
1.840000	0.080336	-0.880000	
1.880000	0.082083	-0.880000	
1.920000	0.083829	-0.880000	
1.960000	0.085575	-0.880000	
2.000000	0.087322	-0.880000	
2.040000	0.089068	-0.880000	
2.080000	0.090815	-0.880000	
2.120000	0.092561	-0.880000	
2.160000	0.094308	-0.880000	
2.200000	0.096054	-0.880000	
2.240000	0.097801	-0.880000	
2.280000	0.099547	-0.880000	
2.320000	0.101293	-0.880000	
2.360000	0.103040	-0.880000	
2.400000	0.104786	-0.880000	
2.440000	0.106533	-0.880000	
2.480000	0.108279	-0.880000	
2.520000	0.110026	-0.880000	
2.560000	0.111772	-0.880000	
2.600000	0.113518	-0.880000	
2.640000	0.115265	-0.880000	
2.680000	0.117011	-0.880000	
2.720000	0.118758	-0.880000	
2.760000	0.120504	-0.880000	
2.800000	0.122251	-0.880000	
2.840000	0.123997	-0.880000	
2.880000	0.125744	-0.880000	
2.920000	0.127490	-0.880000	
2.960000	0.129236	-0.880000	
3.000000	0.130983	-0.880000	
3.040000	0.132729	-0.880000	
3.080000	0.134476	-0.880000	
3.120000	0.136222	-0.880000	
3.160000	0.137969	-0.880000	
3.200000	0.139715	-0.880000	
3.240000	0.141461	-0.880000	
3.280000	0.143208	-0.880000	
3.320000	0.144954	-0.880000	
3.360000	0.146701	-0.880000	
3.400000	0.148447	-0.880000	
3.440000	0.150194	-0.880000	
3.480000	0.151940	-0.880000	
3.520000	0.153687	-0.880000	
3.560000	0.155433	-0.880000	
3.600000	0.157179	-0.880000	
3.640000	0.158926	-0.880000	
3.680000	0.160672	-0.880000	
3.720000	0.162419	-0.880000	
3.760000	0.164165	-0.880000	
3.800000	0.165912	-0.880000	
3.840000	0.167658	-0.880000	
3.880000	0.169404	-0.880000	
3.920000	0.171151	-0.880000	
3.960000	0.172897	-0.880000	
4.000000	0.174644	-0.880000	
4.040000	0.176390	-0.880000	
4.080000	0.178137	-0.880000	
4.120000	0.179883	-0.880000	
4.160000	0.181630	-0.880000	
4.200000	0.183376	-0.880000	
4.240000	0.185122	-0.880000	
4.280000	0.186869	-0.880000	
4.320000	0.188615	-0.880000	
4.360000	0.190362	-0.880000	
4.400000	0.192108	-0.880000	
4.440000	0.193855	-0.880000	
4.480000	0.195601	-0.880000	
4.520000	0.197347	-0.880000	
4.560000	0.199094	-0.880000	
4.600000	0.200840	-0.880000	
4.640000	0.202587	-0.880000	
4.680000	0.204333	-0.880000	
4.720000	0.206080	-0.880000	
4.760000	0.207826	-0.880000	
4.800000	0.209573	-0.880000	
4.840000	0.211319	-0.880000	
4.880000	0.213065	-0.880000	
4.920000	0.214812	-0.880000	
4.960000	0.216558	-0.880000	
5.000000	0.218305	-0.880000	
1.000000	-0.043661	-0.840000	
1.040000	-0.045407	-0.840000	
1.080000	-0.047154	-0.840000	
1.120000	-0.048900	-0.840000	
1.160000	-0.050647	-0.840000	
1.200000	-0.052393	-0.840000	
1.240000	-0.054140	-0.840000	
1.280000	-0.055886	-0.840000	
1.320000	-0.057632	-0.840000	
1.360000	-0.059379	-0.840000	
1.400000	-0.061125	-0.840000	
1.440000	-0.062872	-0.840000	
1.480000	-0.064618	-0.840000	
1.520000	-0.066365	-0.840000	
1.560000	-0.068111	-0.840000	
1.600000	-0.069858	-0.840000	
1.640000	-0.071604	-0.840000	
1.680000	-0.073350	-0.840000	
1.720000	-0.075097	-0.840000	
1.760000	-0.076843	-0.840000	
1.800000	-0.078590	-0.840000	
1.840000	-0.080336	-0.840000	
1.880000	-0.082083	-0.840000	
1.920000	-0.083829	-0.840000	
1.960000	-0.085575	-0.840000	
2.000000	-0.087322	-0.840000	
2.040000	-0.089068	-0.840000	
2.080000	-0.090815	-0.840000	
2.120000	-0.092561	-0.840000	
2.160000	-0.094308	-0.840000	
2.200000	-0.096054	-0.840000	
2.240000	-0.097801	-0.840000	
2.280000	-0.099547	-0.840000	
2.320000	-0.101293	-0.840000	
2.360000	-0.103040	-0.840000	
2.400000	-0.104786	-0.840000	
2.440000	-0.106533	-0.840000	
2.480000	-0.108279	-0.840000	
2.520000	-0.110026	-0.840000	
2.560000	-0.111772	-0.840000	
2.600000	-0.113518	-0.840000	
2.640000	-0.115265	-0.840000	
2.680000	-0.117011	-0.840000	
2.720000	-0.118758	-0.840000	
2.760000	-0.120504	-0.840000	
2.800000	-0.122251	-0.840000	
2.840000	-0.123997	-0.840000	
2.880000	-0.125744	-0.840000	
2.920000	-0.127490	-0.840000	
2.960000	-0.129236	-0.840000	
3.000000	-0.130983	-0.840000	
3.040000	-0.132729	-0.840000	
3.080000	-0.134476	-0.840000	
3.120000	-0.136222	-0.840000	
3.160000	-0.137969	-0.840000	
3.200000	-0.139715	-0.840000	
3.240000	-0.141461	-0.840000	
3.280000	-0.143208	-0.840000	
3.320000	-0.144954	-0.840000	
3.360000	-0.146701	-0.840000	
3.400000	-0.148447	-0.840000	
3.440000	-0.150194	-0.840000	
3.480000	-0.151940	-0.840000	
3.520000	-0.153687	-0.840000	
3.560000	-0.155433	-0.840000	
3.600000	-0.157179	-0.840000	
3.640000	-0.158926	-0.840000	
3.680000	-0.160672	-0.840000	
3.720000	-0.162419	-0.840000	
3.760000	-0.164165	-0.840000	
3.800000	-0.165912	-0.840000	
3.840000	-0.167658	-0.840000	
3.880000	-0.169404	-0.840000	
3.920000	-0.171151	-0.840000	
3.960000	-0.172897	-0.840000	
4.000000	-0.174644	-0.840000	
4.040000	-0.176390	-0.840000	
4.080000	-0.178137	-0.840000	
4.120000	-0.179883	-0.840000	
4.160000	-0.181630	-0.840000	
4.200000	-0.183376	-0.840000	
4.240000	-0.185122	-0.840000	
4.280000	-0.186869	-0.840000	
4.320000	-0.188615	-0.840000	
4.360000	-0.190362	-0.840000	
4.400000	-0.192108	-0.840000	
4.440000	-0.193855	-0.840000	
4.480000	-0.195601	-0.840000	
4.520000	-0.197347	-0.840000	
4.560000	-0.199094	-0.840000	
4.600000	-0.200840	-0.840000	
4.640000	-0.202587	-0.840000	
4.680000	-0.204333	-0.840000	
4.720000	-0.206080	-0.840000	
4.760000	-0.207826	-0.840000	
4.800000	-0.209573	-0.840000	
4.840000	-0.211319	-0.840000	
4.880000	-0.213065	-0.840000	
4.920000	-0.214812	-0.840000	
4.960000	-0.216558	-0.840000	
5.000000	-0.218305	-0.840000	
1.000000	0.043661	-0.840000	
1.040000	0.045407	-0.840000	
1.080000	0.047154	-0.840000	
1.120000	0.048900	-0.840000	
1.160000	0.050647	-0.840000	
1.200000	0.052393	-0.840000	
1.240000	0.054140	-0.840000	
1.280000	0.055886	-0.840000	
1.320000	0.057632	-0.840000	
1.360000	0.059379	-0.840000	
1.400000	0.061125	-0.840000	
1.440000	0.062872	-0.840000	
1.480000	0.064618	-0.840000	
1.520000	0.066365	-0.840000	
1.560000	0.068111	-0.840000	
1.600000	0.069858	-0.840000	
1.640000	0.071604	-0.840000	
1.680000	0.073350	-0.840000	
1.720000	0.075097	-0.840000	
1.760000	0.076843	-0.840000	
1.800000	0.078590	-0.840000	
1.840000	0.080336	-0.840000	
1.880000	0.082083	-0.840000	
1.920000	0.083829	-0.840000	
1.960000	0.085575	-0.840000	
2.000000	0.087322	-0.840000	
2.040000	0.089068	-0.840000	
2.080000	0.090815	-0.840000	
2.120000	0.092561	-0.840000	
2.160000	0.094308	-0.840000	
2.200000	0.096054	-0.840000	
2.240000	0.097801	-0.840000	
2.280000	0.099547	-0.840000	
2.320000	0.101293	-0.840000	
2.360000	0.103040	-0.840000	
2.400000	0.104786	-0.840000	
2.440000	0.106533	-0.840000	
2.480000	0.108279	-0.840000	
2.520000	0.110026	-0.840000	
2.560000	0.111772	-0.840000	
2.600000	0.113518	-0.840000	
2.640000	0.115265	-0.840000	
2.680000	0.117011	-0.840000	
2.720000	0.118758	-0.840000	
2.760000	0.120504	-0.840000	
2.800000	0.122251	-0.840000	
2.840000	0.123997	-0.840000	
2.880000	0.125744	-0.840000	
2.920000	0.127490	-0.840000	
2.960000	0.129236	-0.840000	
3.000000	0.130983	-0.840000	
3.040000	0.132729	-0.840000	
3.080000	0.134476	-0.840000	
3.120000	0.136222	-0.840000	
3.160000	0.137969	-0.840000	
3.200000	0.139715	-0.840000	
3.240000	0.141461	-0.840000	
3.280000	0.143208	-0.840000	
3.320000	0.144954	-0.840000	
3.360000	0.146701	-0.840000	
3.400000	0.148447	-0.840000	
3.440000	0.150194	-0.840000	
3.480000	0.151940	-0.840000	
3.520000	0.153687	-0.840000	
3.560000	0.155433	-0.840000	
3.600000	0.157179	-0.840000	
3.640000	0.158926	-0.840000	
3.680000	0.160672	-0.840000	
3.720000	0.162419	-0.840000	
3.760000	0.164165	-0.840000	
3.800000	0.165912	-0.840000	
3.840000	0.167658	-0.840000	
3.880000	0.169404	-0.840000	
3.920000	0.171151	-0.840000	
3.960000	0.172897	-0.840000	
4.000000	0.174644	-0.840000	
4.040000	0.176390	-0.840000	
4.080000	0.178137	-0.840000	
4.120000	0.179883	-0.840000	
4.160000	0.181630	-0.840000	
4.200000	0.183376	-0.840000	
4.240000	0.185122	-0.840000	
4.280000	0.186869	-0.840000	
4.320000	0.188615	-0.840000	
4.360000	0.190362	-0.840000	
4.400000	0.192108	-0.840000	
4.440000	0.193855	-0.840000	
4.480000	0.195601	-0.840000	
4.520000	0.197347	-0.840000	
4.560000	0.199094	-0.840000	
4.600000	0.200840	-0.840000	
4.640000	0.202587	-0.840000	
4.680000	0.204333	-0.840000	
4.720000	0.206080	-0.840000	
4.760000	0.207826	-0.840000	
4.800000	0.209573	-0.840000	
4.840000	0.211319	-0.840000	
4.880000	0.213065	-0.840000	
4.920000	0.214812	-0.840000	
4.960000	0.216558	-0.840000	
5.000000	0.218305	-0.840000	
1.000000	-0.043661	-0.800000	
1.040000	-0.045407	-0.800000	
1.080000	-0.047154	-0.800000	
1.120000	-0.048900	-0.800000	