VARIABLES = "X" "Y" "Z" "vertA_x" "vertA_y" "vertA_z" "vertB_x" "vertB_y" "vertB_z" "vertC_x" "vertC_y" "vertC_z" "vertD_x" "vertD_y" "vertD_z" "vertE_x" "vertE_y" "vertE_z" "vertF_x" "vertF_y" "vertF_z" "vertG_x" "vertG_y" "vertG_z" "vertH_x" "vertH_y" "vertH_z"
ZONE I=49, J=1, K=49, DATAPACKING=POINT 	 
 1.02e-02	 0.00e+00	 1.02e-02	 0.00e+00	-2.50e-02	 0.00e+00	 0.00e+00	-2.50e-02	 2.04e-02	 0.00e+00	 2.50e-02	 0.00e+00	 0.00e+00	 2.50e-02	 2.04e-02	 2.04e-02	-2.50e-02	 0.00e+00	 2.04e-02	-2.50e-02	 2.04e-02	 2.04e-02	 2.50e-02	 0.00e+00	 2.04e-02	 2.50e-02	 2.04e-02	
 3.06e-02	 0.00e+00	 1.02e-02	 2.04e-02	-2.50e-02	 0.00e+00	 2.04e-02	-2.50e-02	 2.04e-02	 2.04e-02	 2.50e-02	 0.00e+00	 2.04e-02	 2.50e-02	 2.04e-02	 4.08e-02	-2.50e-02	 0.00e+00	 4.08e-02	-2.50e-02	 2.04e-02	 4.08e-02	 2.50e-02	 0.00e+00	 4.08e-02	 2.50e-02	 2.04e-02	
 5.10e-02	 0.00e+00	 1.02e-02	 4.08e-02	-2.50e-02	 0.00e+00	 4.08e-02	-2.50e-02	 2.04e-02	 4.08e-02	 2.50e-02	 0.00e+00	 4.08e-02	 2.50e-02	 2.04e-02	 6.12e-02	-2.50e-02	 0.00e+00	 6.12e-02	-2.50e-02	 2.04e-02	 6.12e-02	 2.50e-02	 0.00e+00	 6.12e-02	 2.50e-02	 2.04e-02	
 7.14e-02	 0.00e+00	 1.02e-02	 6.12e-02	-2.50e-02	 0.00e+00	 6.12e-02	-2.50e-02	 2.04e-02	 6.12e-02	 2.50e-02	 0.00e+00	 6.12e-02	 2.50e-02	 2.04e-02	 8.16e-02	-2.50e-02	 0.00e+00	 8.16e-02	-2.50e-02	 2.04e-02	 8.16e-02	 2.50e-02	 0.00e+00	 8.16e-02	 2.50e-02	 2.04e-02	
 9.18e-02	 0.00e+00	 1.02e-02	 8.16e-02	-2.50e-02	 0.00e+00	 8.16e-02	-2.50e-02	 2.04e-02	 8.16e-02	 2.50e-02	 0.00e+00	 8.16e-02	 2.50e-02	 2.04e-02	 1.02e-01	-2.50e-02	 0.00e+00	 1.02e-01	-2.50e-02	 2.04e-02	 1.02e-01	 2.50e-02	 0.00e+00	 1.02e-01	 2.50e-02	 2.04e-02	
 1.12e-01	 0.00e+00	 1.02e-02	 1.02e-01	-2.50e-02	 0.00e+00	 1.02e-01	-2.50e-02	 2.04e-02	 1.02e-01	 2.50e-02	 0.00e+00	 1.02e-01	 2.50e-02	 2.04e-02	 1.22e-01	-2.50e-02	 0.00e+00	 1.22e-01	-2.50e-02	 2.04e-02	 1.22e-01	 2.50e-02	 0.00e+00	 1.22e-01	 2.50e-02	 2.04e-02	
 1.33e-01	 0.00e+00	 1.02e-02	 1.22e-01	-2.50e-02	 0.00e+00	 1.22e-01	-2.50e-02	 2.04e-02	 1.22e-01	 2.50e-02	 0.00e+00	 1.22e-01	 2.50e-02	 2.04e-02	 1.43e-01	-2.50e-02	 0.00e+00	 1.43e-01	-2.50e-02	 2.04e-02	 1.43e-01	 2.50e-02	 0.00e+00	 1.43e-01	 2.50e-02	 2.04e-02	
 1.53e-01	 0.00e+00	 1.02e-02	 1.43e-01	-2.50e-02	 0.00e+00	 1.43e-01	-2.50e-02	 2.04e-02	 1.43e-01	 2.50e-02	 0.00e+00	 1.43e-01	 2.50e-02	 2.04e-02	 1.63e-01	-2.50e-02	 0.00e+00	 1.63e-01	-2.50e-02	 2.04e-02	 1.63e-01	 2.50e-02	 0.00e+00	 1.63e-01	 2.50e-02	 2.04e-02	
 1.73e-01	 0.00e+00	 1.02e-02	 1.63e-01	-2.50e-02	 0.00e+00	 1.63e-01	-2.50e-02	 2.04e-02	 1.63e-01	 2.50e-02	 0.00e+00	 1.63e-01	 2.50e-02	 2.04e-02	 1.84e-01	-2.50e-02	 0.00e+00	 1.84e-01	-2.50e-02	 2.04e-02	 1.84e-01	 2.50e-02	 0.00e+00	 1.84e-01	 2.50e-02	 2.04e-02	
 1.94e-01	 0.00e+00	 1.02e-02	 1.84e-01	-2.50e-02	 0.00e+00	 1.84e-01	-2.50e-02	 2.04e-02	 1.84e-01	 2.50e-02	 0.00e+00	 1.84e-01	 2.50e-02	 2.04e-02	 2.04e-01	-2.50e-02	 0.00e+00	 2.04e-01	-2.50e-02	 2.04e-02	 2.04e-01	 2.50e-02	 0.00e+00	 2.04e-01	 2.50e-02	 2.04e-02	
 2.14e-01	 0.00e+00	 1.02e-02	 2.04e-01	-2.50e-02	 0.00e+00	 2.04e-01	-2.50e-02	 2.04e-02	 2.04e-01	 2.50e-02	 0.00e+00	 2.04e-01	 2.50e-02	 2.04e-02	 2.24e-01	-2.50e-02	 0.00e+00	 2.24e-01	-2.50e-02	 2.04e-02	 2.24e-01	 2.50e-02	 0.00e+00	 2.24e-01	 2.50e-02	 2.04e-02	
 2.35e-01	 0.00e+00	 1.02e-02	 2.24e-01	-2.50e-02	 0.00e+00	 2.24e-01	-2.50e-02	 2.04e-02	 2.24e-01	 2.50e-02	 0.00e+00	 2.24e-01	 2.50e-02	 2.04e-02	 2.45e-01	-2.50e-02	 0.00e+00	 2.45e-01	-2.50e-02	 2.04e-02	 2.45e-01	 2.50e-02	 0.00e+00	 2.45e-01	 2.50e-02	 2.04e-02	
 2.55e-01	 0.00e+00	 1.02e-02	 2.45e-01	-2.50e-02	 0.00e+00	 2.45e-01	-2.50e-02	 2.04e-02	 2.45e-01	 2.50e-02	 0.00e+00	 2.45e-01	 2.50e-02	 2.04e-02	 2.65e-01	-2.50e-02	 0.00e+00	 2.65e-01	-2.50e-02	 2.04e-02	 2.65e-01	 2.50e-02	 0.00e+00	 2.65e-01	 2.50e-02	 2.04e-02	
 2.76e-01	 0.00e+00	 1.02e-02	 2.65e-01	-2.50e-02	 0.00e+00	 2.65e-01	-2.50e-02	 2.04e-02	 2.65e-01	 2.50e-02	 0.00e+00	 2.65e-01	 2.50e-02	 2.04e-02	 2.86e-01	-2.50e-02	 0.00e+00	 2.86e-01	-2.50e-02	 2.04e-02	 2.86e-01	 2.50e-02	 0.00e+00	 2.86e-01	 2.50e-02	 2.04e-02	
 2.96e-01	 0.00e+00	 1.02e-02	 2.86e-01	-2.50e-02	 0.00e+00	 2.86e-01	-2.50e-02	 2.04e-02	 2.86e-01	 2.50e-02	 0.00e+00	 2.86e-01	 2.50e-02	 2.04e-02	 3.06e-01	-2.50e-02	 0.00e+00	 3.06e-01	-2.50e-02	 2.04e-02	 3.06e-01	 2.50e-02	 0.00e+00	 3.06e-01	 2.50e-02	 2.04e-02	
 3.16e-01	 0.00e+00	 1.02e-02	 3.06e-01	-2.50e-02	 0.00e+00	 3.06e-01	-2.50e-02	 2.04e-02	 3.06e-01	 2.50e-02	 0.00e+00	 3.06e-01	 2.50e-02	 2.04e-02	 3.27e-01	-2.50e-02	 0.00e+00	 3.27e-01	-2.50e-02	 2.04e-02	 3.27e-01	 2.50e-02	 0.00e+00	 3.27e-01	 2.50e-02	 2.04e-02	
 3.37e-01	 0.00e+00	 1.02e-02	 3.27e-01	-2.50e-02	 0.00e+00	 3.27e-01	-2.50e-02	 2.04e-02	 3.27e-01	 2.50e-02	 0.00e+00	 3.27e-01	 2.50e-02	 2.04e-02	 3.47e-01	-2.50e-02	 0.00e+00	 3.47e-01	-2.50e-02	 2.04e-02	 3.47e-01	 2.50e-02	 0.00e+00	 3.47e-01	 2.50e-02	 2.04e-02	
 3.57e-01	 0.00e+00	 1.02e-02	 3.47e-01	-2.50e-02	 0.00e+00	 3.47e-01	-2.50e-02	 2.04e-02	 3.47e-01	 2.50e-02	 0.00e+00	 3.47e-01	 2.50e-02	 2.04e-02	 3.67e-01	-2.50e-02	 0.00e+00	 3.67e-01	-2.50e-02	 2.04e-02	 3.67e-01	 2.50e-02	 0.00e+00	 3.67e-01	 2.50e-02	 2.04e-02	
 3.78e-01	 0.00e+00	 1.02e-02	 3.67e-01	-2.50e-02	 0.00e+00	 3.67e-01	-2.50e-02	 2.04e-02	 3.67e-01	 2.50e-02	 0.00e+00	 3.67e-01	 2.50e-02	 2.04e-02	 3.88e-01	-2.50e-02	 0.00e+00	 3.88e-01	-2.50e-02	 2.04e-02	 3.88e-01	 2.50e-02	 0.00e+00	 3.88e-01	 2.50e-02	 2.04e-02	
 3.98e-01	 0.00e+00	 1.02e-02	 3.88e-01	-2.50e-02	 0.00e+00	 3.88e-01	-2.50e-02	 2.04e-02	 3.88e-01	 2.50e-02	 0.00e+00	 3.88e-01	 2.50e-02	 2.04e-02	 4.08e-01	-2.50e-02	 0.00e+00	 4.08e-01	-2.50e-02	 2.04e-02	 4.08e-01	 2.50e-02	 0.00e+00	 4.08e-01	 2.50e-02	 2.04e-02	
 4.18e-01	 0.00e+00	 1.02e-02	 4.08e-01	-2.50e-02	 0.00e+00	 4.08e-01	-2.50e-02	 2.04e-02	 4.08e-01	 2.50e-02	 0.00e+00	 4.08e-01	 2.50e-02	 2.04e-02	 4.29e-01	-2.50e-02	 0.00e+00	 4.29e-01	-2.50e-02	 2.04e-02	 4.29e-01	 2.50e-02	 0.00e+00	 4.29e-01	 2.50e-02	 2.04e-02	
 4.39e-01	 0.00e+00	 1.02e-02	 4.29e-01	-2.50e-02	 0.00e+00	 4.29e-01	-2.50e-02	 2.04e-02	 4.29e-01	 2.50e-02	 0.00e+00	 4.29e-01	 2.50e-02	 2.04e-02	 4.49e-01	-2.50e-02	 0.00e+00	 4.49e-01	-2.50e-02	 2.04e-02	 4.49e-01	 2.50e-02	 0.00e+00	 4.49e-01	 2.50e-02	 2.04e-02	
 4.59e-01	 0.00e+00	 1.02e-02	 4.49e-01	-2.50e-02	 0.00e+00	 4.49e-01	-2.50e-02	 2.04e-02	 4.49e-01	 2.50e-02	 0.00e+00	 4.49e-01	 2.50e-02	 2.04e-02	 4.69e-01	-2.50e-02	 0.00e+00	 4.69e-01	-2.50e-02	 2.04e-02	 4.69e-01	 2.50e-02	 0.00e+00	 4.69e-01	 2.50e-02	 2.04e-02	
 4.80e-01	 0.00e+00	 1.02e-02	 4.69e-01	-2.50e-02	 0.00e+00	 4.69e-01	-2.50e-02	 2.04e-02	 4.69e-01	 2.50e-02	 0.00e+00	 4.69e-01	 2.50e-02	 2.04e-02	 4.90e-01	-2.50e-02	 0.00e+00	 4.90e-01	-2.50e-02	 2.04e-02	 4.90e-01	 2.50e-02	 0.00e+00	 4.90e-01	 2.50e-02	 2.04e-02	
 5.00e-01	 0.00e+00	 1.02e-02	 4.90e-01	-2.50e-02	 0.00e+00	 4.90e-01	-2.50e-02	 2.04e-02	 4.90e-01	 2.50e-02	 0.00e+00	 4.90e-01	 2.50e-02	 2.04e-02	 5.10e-01	-2.50e-02	 0.00e+00	 5.10e-01	-2.50e-02	 2.04e-02	 5.10e-01	 2.50e-02	 0.00e+00	 5.10e-01	 2.50e-02	 2.04e-02	
 5.20e-01	 0.00e+00	 1.02e-02	 5.10e-01	-2.50e-02	 0.00e+00	 5.10e-01	-2.50e-02	 2.04e-02	 5.10e-01	 2.50e-02	 0.00e+00	 5.10e-01	 2.50e-02	 2.04e-02	 5.31e-01	-2.50e-02	 0.00e+00	 5.31e-01	-2.50e-02	 2.04e-02	 5.31e-01	 2.50e-02	 0.00e+00	 5.31e-01	 2.50e-02	 2.04e-02	
 5.41e-01	 0.00e+00	 1.02e-02	 5.31e-01	-2.50e-02	 0.00e+00	 5.31e-01	-2.50e-02	 2.04e-02	 5.31e-01	 2.50e-02	 0.00e+00	 5.31e-01	 2.50e-02	 2.04e-02	 5.51e-01	-2.50e-02	 0.00e+00	 5.51e-01	-2.50e-02	 2.04e-02	 5.51e-01	 2.50e-02	 0.00e+00	 5.51e-01	 2.50e-02	 2.04e-02	
 5.61e-01	 0.00e+00	 1.02e-02	 5.51e-01	-2.50e-02	 0.00e+00	 5.51e-01	-2.50e-02	 2.04e-02	 5.51e-01	 2.50e-02	 0.00e+00	 5.51e-01	 2.50e-02	 2.04e-02	 5.71e-01	-2.50e-02	 0.00e+00	 5.71e-01	-2.50e-02	 2.04e-02	 5.71e-01	 2.50e-02	 0.00e+00	 5.71e-01	 2.50e-02	 2.04e-02	
 5.82e-01	 0.00e+00	 1.02e-02	 5.71e-01	-2.50e-02	 0.00e+00	 5.71e-01	-2.50e-02	 2.04e-02	 5.71e-01	 2.50e-02	 0.00e+00	 5.71e-01	 2.50e-02	 2.04e-02	 5.92e-01	-2.50e-02	 0.00e+00	 5.92e-01	-2.50e-02	 2.04e-02	 5.92e-01	 2.50e-02	 0.00e+00	 5.92e-01	 2.50e-02	 2.04e-02	
 6.02e-01	 0.00e+00	 1.02e-02	 5.92e-01	-2.50e-02	 0.00e+00	 5.92e-01	-2.50e-02	 2.04e-02	 5.92e-01	 2.50e-02	 0.00e+00	 5.92e-01	 2.50e-02	 2.04e-02	 6.12e-01	-2.50e-02	 0.00e+00	 6.12e-01	-2.50e-02	 2.04e-02	 6.12e-01	 2.50e-02	 0.00e+00	 6.12e-01	 2.50e-02	 2.04e-02	
 6.22e-01	 0.00e+00	 1.02e-02	 6.12e-01	-2.50e-02	 0.00e+00	 6.12e-01	-2.50e-02	 2.04e-02	 6.12e-01	 2.50e-02	 0.00e+00	 6.12e-01	 2.50e-02	 2.04e-02	 6.33e-01	-2.50e-02	 0.00e+00	 6.33e-01	-2.50e-02	 2.04e-02	 6.33e-01	 2.50e-02	 0.00e+00	 6.33e-01	 2.50e-02	 2.04e-02	
 6.43e-01	 0.00e+00	 1.02e-02	 6.33e-01	-2.50e-02	 0.00e+00	 6.33e-01	-2.50e-02	 2.04e-02	 6.33e-01	 2.50e-02	 0.00e+00	 6.33e-01	 2.50e-02	 2.04e-02	 6.53e-01	-2.50e-02	 0.00e+00	 6.53e-01	-2.50e-02	 2.04e-02	 6.53e-01	 2.50e-02	 0.00e+00	 6.53e-01	 2.50e-02	 2.04e-02	
 6.63e-01	 0.00e+00	 1.02e-02	 6.53e-01	-2.50e-02	 0.00e+00	 6.53e-01	-2.50e-02	 2.04e-02	 6.53e-01	 2.50e-02	 0.00e+00	 6.53e-01	 2.50e-02	 2.04e-02	 6.73e-01	-2.50e-02	 0.00e+00	 6.73e-01	-2.50e-02	 2.04e-02	 6.73e-01	 2.50e-02	 0.00e+00	 6.73e-01	 2.50e-02	 2.04e-02	
 6.84e-01	 0.00e+00	 1.02e-02	 6.73e-01	-2.50e-02	 0.00e+00	 6.73e-01	-2.50e-02	 2.04e-02	 6.73e-01	 2.50e-02	 0.00e+00	 6.73e-01	 2.50e-02	 2.04e-02	 6.94e-01	-2.50e-02	 0.00e+00	 6.94e-01	-2.50e-02	 2.04e-02	 6.94e-01	 2.50e-02	 0.00e+00	 6.94e-01	 2.50e-02	 2.04e-02	
 7.04e-01	 0.00e+00	 1.02e-02	 6.94e-01	-2.50e-02	 0.00e+00	 6.94e-01	-2.50e-02	 2.04e-02	 6.94e-01	 2.50e-02	 0.00e+00	 6.94e-01	 2.50e-02	 2.04e-02	 7.14e-01	-2.50e-02	 0.00e+00	 7.14e-01	-2.50e-02	 2.04e-02	 7.14e-01	 2.50e-02	 0.00e+00	 7.14e-01	 2.50e-02	 2.04e-02	
 7.24e-01	 0.00e+00	 1.02e-02	 7.14e-01	-2.50e-02	 0.00e+00	 7.14e-01	-2.50e-02	 2.04e-02	 7.14e-01	 2.50e-02	 0.00e+00	 7.14e-01	 2.50e-02	 2.04e-02	 7.35e-01	-2.50e-02	 0.00e+00	 7.35e-01	-2.50e-02	 2.04e-02	 7.35e-01	 2.50e-02	 0.00e+00	 7.35e-01	 2.50e-02	 2.04e-02	
 7.45e-01	 0.00e+00	 1.02e-02	 7.35e-01	-2.50e-02	 0.00e+00	 7.35e-01	-2.50e-02	 2.04e-02	 7.35e-01	 2.50e-02	 0.00e+00	 7.35e-01	 2.50e-02	 2.04e-02	 7.55e-01	-2.50e-02	 0.00e+00	 7.55e-01	-2.50e-02	 2.04e-02	 7.55e-01	 2.50e-02	 0.00e+00	 7.55e-01	 2.50e-02	 2.04e-02	
 7.65e-01	 0.00e+00	 1.02e-02	 7.55e-01	-2.50e-02	 0.00e+00	 7.55e-01	-2.50e-02	 2.04e-02	 7.55e-01	 2.50e-02	 0.00e+00	 7.55e-01	 2.50e-02	 2.04e-02	 7.76e-01	-2.50e-02	 0.00e+00	 7.76e-01	-2.50e-02	 2.04e-02	 7.76e-01	 2.50e-02	 0.00e+00	 7.76e-01	 2.50e-02	 2.04e-02	
 7.86e-01	 0.00e+00	 1.02e-02	 7.76e-01	-2.50e-02	 0.00e+00	 7.76e-01	-2.50e-02	 2.04e-02	 7.76e-01	 2.50e-02	 0.00e+00	 7.76e-01	 2.50e-02	 2.04e-02	 7.96e-01	-2.50e-02	 0.00e+00	 7.96e-01	-2.50e-02	 2.04e-02	 7.96e-01	 2.50e-02	 0.00e+00	 7.96e-01	 2.50e-02	 2.04e-02	
 8.06e-01	 0.00e+00	 1.02e-02	 7.96e-01	-2.50e-02	 0.00e+00	 7.96e-01	-2.50e-02	 2.04e-02	 7.96e-01	 2.50e-02	 0.00e+00	 7.96e-01	 2.50e-02	 2.04e-02	 8.16e-01	-2.50e-02	 0.00e+00	 8.16e-01	-2.50e-02	 2.04e-02	 8.16e-01	 2.50e-02	 0.00e+00	 8.16e-01	 2.50e-02	 2.04e-02	
 8.27e-01	 0.00e+00	 1.02e-02	 8.16e-01	-2.50e-02	 0.00e+00	 8.16e-01	-2.50e-02	 2.04e-02	 8.16e-01	 2.50e-02	 0.00e+00	 8.16e-01	 2.50e-02	 2.04e-02	 8.37e-01	-2.50e-02	 0.00e+00	 8.37e-01	-2.50e-02	 2.04e-02	 8.37e-01	 2.50e-02	 0.00e+00	 8.37e-01	 2.50e-02	 2.04e-02	
 8.47e-01	 0.00e+00	 1.02e-02	 8.37e-01	-2.50e-02	 0.00e+00	 8.37e-01	-2.50e-02	 2.04e-02	 8.37e-01	 2.50e-02	 0.00e+00	 8.37e-01	 2.50e-02	 2.04e-02	 8.57e-01	-2.50e-02	 0.00e+00	 8.57e-01	-2.50e-02	 2.04e-02	 8.57e-01	 2.50e-02	 0.00e+00	 8.57e-01	 2.50e-02	 2.04e-02	
 8.67e-01	 0.00e+00	 1.02e-02	 8.57e-01	-2.50e-02	 0.00e+00	 8.57e-01	-2.50e-02	 2.04e-02	 8.57e-01	 2.50e-02	 0.00e+00	 8.57e-01	 2.50e-02	 2.04e-02	 8.78e-01	-2.50e-02	 0.00e+00	 8.78e-01	-2.50e-02	 2.04e-02	 8.78e-01	 2.50e-02	 0.00e+00	 8.78e-01	 2.50e-02	 2.04e-02	
 8.88e-01	 0.00e+00	 1.02e-02	 8.78e-01	-2.50e-02	 0.00e+00	 8.78e-01	-2.50e-02	 2.04e-02	 8.78e-01	 2.50e-02	 0.00e+00	 8.78e-01	 2.50e-02	 2.04e-02	 8.98e-01	-2.50e-02	 0.00e+00	 8.98e-01	-2.50e-02	 2.04e-02	 8.98e-01	 2.50e-02	 0.00e+00	 8.98e-01	 2.50e-02	 2.04e-02	
 9.08e-01	 0.00e+00	 1.02e-02	 8.98e-01	-2.50e-02	 0.00e+00	 8.98e-01	-2.50e-02	 2.04e-02	 8.98e-01	 2.50e-02	 0.00e+00	 8.98e-01	 2.50e-02	 2.04e-02	 9.18e-01	-2.50e-02	 0.00e+00	 9.18e-01	-2.50e-02	 2.04e-02	 9.18e-01	 2.50e-02	 0.00e+00	 9.18e-01	 2.50e-02	 2.04e-02	
 9.29e-01	 0.00e+00	 1.02e-02	 9.18e-01	-2.50e-02	 0.00e+00	 9.18e-01	-2.50e-02	 2.04e-02	 9.18e-01	 2.50e-02	 0.00e+00	 9.18e-01	 2.50e-02	 2.04e-02	 9.39e-01	-2.50e-02	 0.00e+00	 9.39e-01	-2.50e-02	 2.04e-02	 9.39e-01	 2.50e-02	 0.00e+00	 9.39e-01	 2.50e-02	 2.04e-02	
 9.49e-01	 0.00e+00	 1.02e-02	 9.39e-01	-2.50e-02	 0.00e+00	 9.39e-01	-2.50e-02	 2.04e-02	 9.39e-01	 2.50e-02	 0.00e+00	 9.39e-01	 2.50e-02	 2.04e-02	 9.59e-01	-2.50e-02	 0.00e+00	 9.59e-01	-2.50e-02	 2.04e-02	 9.59e-01	 2.50e-02	 0.00e+00	 9.59e-01	 2.50e-02	 2.04e-02	
 9.69e-01	 0.00e+00	 1.02e-02	 9.59e-01	-2.50e-02	 0.00e+00	 9.59e-01	-2.50e-02	 2.04e-02	 9.59e-01	 2.50e-02	 0.00e+00	 9.59e-01	 2.50e-02	 2.04e-02	 9.80e-01	-2.50e-02	 0.00e+00	 9.80e-01	-2.50e-02	 2.04e-02	 9.80e-01	 2.50e-02	 0.00e+00	 9.80e-01	 2.50e-02	 2.04e-02	
 9.90e-01	 0.00e+00	 1.02e-02	 9.80e-01	-2.50e-02	 0.00e+00	 9.80e-01	-2.50e-02	 2.04e-02	 9.80e-01	 2.50e-02	 0.00e+00	 9.80e-01	 2.50e-02	 2.04e-02	 1.00e+00	-2.50e-02	 0.00e+00	 1.00e+00	-2.50e-02	 2.04e-02	 1.00e+00	 2.50e-02	 0.00e+00	 1.00e+00	 2.50e-02	 2.04e-02	
 1.02e-02	 0.00e+00	 3.06e-02	 0.00e+00	-2.50e-02	 2.04e-02	 0.00e+00	-2.50e-02	 4.08e-02	 0.00e+00	 2.50e-02	 2.04e-02	 0.00e+00	 2.50e-02	 4.08e-02	 2.04e-02	-2.50e-02	 2.04e-02	 2.04e-02	-2.50e-02	 4.08e-02	 2.04e-02	 2.50e-02	 2.04e-02	 2.04e-02	 2.50e-02	 4.08e-02	
 3.06e-02	 0.00e+00	 3.06e-02	 2.04e-02	-2.50e-02	 2.04e-02	 2.04e-02	-2.50e-02	 4.08e-02	 2.04e-02	 2.50e-02	 2.04e-02	 2.04e-02	 2.50e-02	 4.08e-02	 4.08e-02	-2.50e-02	 2.04e-02	 4.08e-02	-2.50e-02	 4.08e-02	 4.08e-02	 2.50e-02	 2.04e-02	 4.08e-02	 2.50e-02	 4.08e-02	
 5.10e-02	 0.00e+00	 3.06e-02	 4.08e-02	-2.50e-02	 2.04e-02	 4.08e-02	-2.50e-02	 4.08e-02	 4.08e-02	 2.50e-02	 2.04e-02	 4.08e-02	 2.50e-02	 4.08e-02	 6.12e-02	-2.50e-02	 2.04e-02	 6.12e-02	-2.50e-02	 4.08e-02	 6.12e-02	 2.50e-02	 2.04e-02	 6.12e-02	 2.50e-02	 4.08e-02	
 7.14e-02	 0.00e+00	 3.06e-02	 6.12e-02	-2.50e-02	 2.04e-02	 6.12e-02	-2.50e-02	 4.08e-02	 6.12e-02	 2.50e-02	 2.04e-02	 6.12e-02	 2.50e-02	 4.08e-02	 8.16e-02	-2.50e-02	 2.04e-02	 8.16e-02	-2.50e-02	 4.08e-02	 8.16e-02	 2.50e-02	 2.04e-02	 8.16e-02	 2.50e-02	 4.08e-02	
 9.18e-02	 0.00e+00	 3.06e-02	 8.16e-02	-2.50e-02	 2.04e-02	 8.16e-02	-2.50e-02	 4.08e-02	 8.16e-02	 2.50e-02	 2.04e-02	 8.16e-02	 2.50e-02	 4.08e-02	 1.02e-01	-2.50e-02	 2.04e-02	 1.02e-01	-2.50e-02	 4.08e-02	 1.02e-01	 2.50e-02	 2.04e-02	 1.02e-01	 2.50e-02	 4.08e-02	
 1.12e-01	 0.00e+00	 3.06e-02	 1.02e-01	-2.50e-02	 2.04e-02	 1.02e-01	-2.50e-02	 4.08e-02	 1.02e-01	 2.50e-02	 2.04e-02	 1.02e-01	 2.50e-02	 4.08e-02	 1.22e-01	-2.50e-02	 2.04e-02	 1.22e-01	-2.50e-02	 4.08e-02	 1.22e-01	 2.50e-02	 2.04e-02	 1.22e-01	 2.50e-02	 4.08e-02	
 1.33e-01	 0.00e+00	 3.06e-02	 1.22e-01	-2.50e-02	 2.04e-02	 1.22e-01	-2.50e-02	 4.08e-02	 1.22e-01	 2.50e-02	 2.04e-02	 1.22e-01	 2.50e-02	 4.08e-02	 1.43e-01	-2.50e-02	 2.04e-02	 1.43e-01	-2.50e-02	 4.08e-02	 1.43e-01	 2.50e-02	 2.04e-02	 1.43e-01	 2.50e-02	 4.08e-02	
 1.53e-01	 0.00e+00	 3.06e-02	 1.43e-01	-2.50e-02	 2.04e-02	 1.43e-01	-2.50e-02	 4.08e-02	 1.43e-01	 2.50e-02	 2.04e-02	 1.43e-01	 2.50e-02	 4.08e-02	 1.63e-01	-2.50e-02	 2.04e-02	 1.63e-01	-2.50e-02	 4.08e-02	 1.63e-01	 2.50e-02	 2.04e-02	 1.63e-01	 2.50e-02	 4.08e-02	
 1.73e-01	 0.00e+00	 3.06e-02	 1.63e-01	-2.50e-02	 2.04e-02	 1.63e-01	-2.50e-02	 4.08e-02	 1.63e-01	 2.50e-02	 2.04e-02	 1.63e-01	 2.50e-02	 4.08e-02	 1.84e-01	-2.50e-02	 2.04e-02	 1.84e-01	-2.50e-02	 4.08e-02	 1.84e-01	 2.50e-02	 2.04e-02	 1.84e-01	 2.50e-02	 4.08e-02	
 1.94e-01	 0.00e+00	 3.06e-02	 1.84e-01	-2.50e-02	 2.04e-02	 1.84e-01	-2.50e-02	 4.08e-02	 1.84e-01	 2.50e-02	 2.04e-02	 1.84e-01	 2.50e-02	 4.08e-02	 2.04e-01	-2.50e-02	 2.04e-02	 2.04e-01	-2.50e-02	 4.08e-02	 2.04e-01	 2.50e-02	 2.04e-02	 2.04e-01	 2.50e-02	 4.08e-02	
 2.14e-01	 0.00e+00	 3.06e-02	 2.04e-01	-2.50e-02	 2.04e-02	 2.04e-01	-2.50e-02	 4.08e-02	 2.04e-01	 2.50e-02	 2.04e-02	 2.04e-01	 2.50e-02	 4.08e-02	 2.24e-01	-2.50e-02	 2.04e-02	 2.24e-01	-2.50e-02	 4.08e-02	 2.24e-01	 2.50e-02	 2.04e-02	 2.24e-01	 2.50e-02	 4.08e-02	
 2.35e-01	 0.00e+00	 3.06e-02	 2.24e-01	-2.50e-02	 2.04e-02	 2.24e-01	-2.50e-02	 4.08e-02	 2.24e-01	 2.50e-02	 2.04e-02	 2.24e-01	 2.50e-02	 4.08e-02	 2.45e-01	-2.50e-02	 2.04e-02	 2.45e-01	-2.50e-02	 4.08e-02	 2.45e-01	 2.50e-02	 2.04e-02	 2.45e-01	 2.50e-02	 4.08e-02	
 2.55e-01	 0.00e+00	 3.06e-02	 2.45e-01	-2.50e-02	 2.04e-02	 2.45e-01	-2.50e-02	 4.08e-02	 2.45e-01	 2.50e-02	 2.04e-02	 2.45e-01	 2.50e-02	 4.08e-02	 2.65e-01	-2.50e-02	 2.04e-02	 2.65e-01	-2.50e-02	 4.08e-02	 2.65e-01	 2.50e-02	 2.04e-02	 2.65e-01	 2.50e-02	 4.08e-02	
 2.76e-01	 0.00e+00	 3.06e-02	 2.65e-01	-2.50e-02	 2.04e-02	 2.65e-01	-2.50e-02	 4.08e-02	 2.65e-01	 2.50e-02	 2.04e-02	 2.65e-01	 2.50e-02	 4.08e-02	 2.86e-01	-2.50e-02	 2.04e-02	 2.86e-01	-2.50e-02	 4.08e-02	 2.86e-01	 2.50e-02	 2.04e-02	 2.86e-01	 2.50e-02	 4.08e-02	
 2.96e-01	 0.00e+00	 3.06e-02	 2.86e-01	-2.50e-02	 2.04e-02	 2.86e-01	-2.50e-02	 4.08e-02	 2.86e-01	 2.50e-02	 2.04e-02	 2.86e-01	 2.50e-02	 4.08e-02	 3.06e-01	-2.50e-02	 2.04e-02	 3.06e-01	-2.50e-02	 4.08e-02	 3.06e-01	 2.50e-02	 2.04e-02	 3.06e-01	 2.50e-02	 4.08e-02	
 3.16e-01	 0.00e+00	 3.06e-02	 3.06e-01	-2.50e-02	 2.04e-02	 3.06e-01	-2.50e-02	 4.08e-02	 3.06e-01	 2.50e-02	 2.04e-02	 3.06e-01	 2.50e-02	 4.08e-02	 3.27e-01	-2.50e-02	 2.04e-02	 3.27e-01	-2.50e-02	 4.08e-02	 3.27e-01	 2.50e-02	 2.04e-02	 3.27e-01	 2.50e-02	 4.08e-02	
 3.37e-01	 0.00e+00	 3.06e-02	 3.27e-01	-2.50e-02	 2.04e-02	 3.27e-01	-2.50e-02	 4.08e-02	 3.27e-01	 2.50e-02	 2.04e-02	 3.27e-01	 2.50e-02	 4.08e-02	 3.47e-01	-2.50e-02	 2.04e-02	 3.47e-01	-2.50e-02	 4.08e-02	 3.47e-01	 2.50e-02	 2.04e-02	 3.47e-01	 2.50e-02	 4.08e-02	
 3.57e-01	 0.00e+00	 3.06e-02	 3.47e-01	-2.50e-02	 2.04e-02	 3.47e-01	-2.50e-02	 4.08e-02	 3.47e-01	 2.50e-02	 2.04e-02	 3.47e-01	 2.50e-02	 4.08e-02	 3.67e-01	-2.50e-02	 2.04e-02	 3.67e-01	-2.50e-02	 4.08e-02	 3.67e-01	 2.50e-02	 2.04e-02	 3.67e-01	 2.50e-02	 4.08e-02	
 3.78e-01	 0.00e+00	 3.06e-02	 3.67e-01	-2.50e-02	 2.04e-02	 3.67e-01	-2.50e-02	 4.08e-02	 3.67e-01	 2.50e-02	 2.04e-02	 3.67e-01	 2.50e-02	 4.08e-02	 3.88e-01	-2.50e-02	 2.04e-02	 3.88e-01	-2.50e-02	 4.08e-02	 3.88e-01	 2.50e-02	 2.04e-02	 3.88e-01	 2.50e-02	 4.08e-02	
 3.98e-01	 0.00e+00	 3.06e-02	 3.88e-01	-2.50e-02	 2.04e-02	 3.88e-01	-2.50e-02	 4.08e-02	 3.88e-01	 2.50e-02	 2.04e-02	 3.88e-01	 2.50e-02	 4.08e-02	 4.08e-01	-2.50e-02	 2.04e-02	 4.08e-01	-2.50e-02	 4.08e-02	 4.08e-01	 2.50e-02	 2.04e-02	 4.08e-01	 2.50e-02	 4.08e-02	
 4.18e-01	 0.00e+00	 3.06e-02	 4.08e-01	-2.50e-02	 2.04e-02	 4.08e-01	-2.50e-02	 4.08e-02	 4.08e-01	 2.50e-02	 2.04e-02	 4.08e-01	 2.50e-02	 4.08e-02	 4.29e-01	-2.50e-02	 2.04e-02	 4.29e-01	-2.50e-02	 4.08e-02	 4.29e-01	 2.50e-02	 2.04e-02	 4.29e-01	 2.50e-02	 4.08e-02	
 4.39e-01	 0.00e+00	 3.06e-02	 4.29e-01	-2.50e-02	 2.04e-02	 4.29e-01	-2.50e-02	 4.08e-02	 4.29e-01	 2.50e-02	 2.04e-02	 4.29e-01	 2.50e-02	 4.08e-02	 4.49e-01	-2.50e-02	 2.04e-02	 4.49e-01	-2.50e-02	 4.08e-02	 4.49e-01	 2.50e-02	 2.04e-02	 4.49e-01	 2.50e-02	 4.08e-02	
 4.59e-01	 0.00e+00	 3.06e-02	 4.49e-01	-2.50e-02	 2.04e-02	 4.49e-01	-2.50e-02	 4.08e-02	 4.49e-01	 2.50e-02	 2.04e-02	 4.49e-01	 2.50e-02	 4.08e-02	 4.69e-01	-2.50e-02	 2.04e-02	 4.69e-01	-2.50e-02	 4.08e-02	 4.69e-01	 2.50e-02	 2.04e-02	 4.69e-01	 2.50e-02	 4.08e-02	
 4.80e-01	 0.00e+00	 3.06e-02	 4.69e-01	-2.50e-02	 2.04e-02	 4.69e-01	-2.50e-02	 4.08e-02	 4.69e-01	 2.50e-02	 2.04e-02	 4.69e-01	 2.50e-02	 4.08e-02	 4.90e-01	-2.50e-02	 2.04e-02	 4.90e-01	-2.50e-02	 4.08e-02	 4.90e-01	 2.50e-02	 2.04e-02	 4.90e-01	 2.50e-02	 4.08e-02	
 5.00e-01	 0.00e+00	 3.06e-02	 4.90e-01	-2.50e-02	 2.04e-02	 4.90e-01	-2.50e-02	 4.08e-02	 4.90e-01	 2.50e-02	 2.04e-02	 4.90e-01	 2.50e-02	 4.08e-02	 5.10e-01	-2.50e-02	 2.04e-02	 5.10e-01	-2.50e-02	 4.08e-02	 5.10e-01	 2.50e-02	 2.04e-02	 5.10e-01	 2.50e-02	 4.08e-02	
 5.20e-01	 0.00e+00	 3.06e-02	 5.10e-01	-2.50e-02	 2.04e-02	 5.10e-01	-2.50e-02	 4.08e-02	 5.10e-01	 2.50e-02	 2.04e-02	 5.10e-01	 2.50e-02	 4.08e-02	 5.31e-01	-2.50e-02	 2.04e-02	 5.31e-01	-2.50e-02	 4.08e-02	 5.31e-01	 2.50e-02	 2.04e-02	 5.31e-01	 2.50e-02	 4.08e-02	
 5.41e-01	 0.00e+00	 3.06e-02	 5.31e-01	-2.50e-02	 2.04e-02	 5.31e-01	-2.50e-02	 4.08e-02	 5.31e-01	 2.50e-02	 2.04e-02	 5.31e-01	 2.50e-02	 4.08e-02	 5.51e-01	-2.50e-02	 2.04e-02	 5.51e-01	-2.50e-02	 4.08e-02	 5.51e-01	 2.50e-02	 2.04e-02	 5.51e-01	 2.50e-02	 4.08e-02	
 5.61e-01	 0.00e+00	 3.06e-02	 5.51e-01	-2.50e-02	 2.04e-02	 5.51e-01	-2.50e-02	 4.08e-02	 5.51e-01	 2.50e-02	 2.04e-02	 5.51e-01	 2.50e-02	 4.08e-02	 5.71e-01	-2.50e-02	 2.04e-02	 5.71e-01	-2.50e-02	 4.08e-02	 5.71e-01	 2.50e-02	 2.04e-02	 5.71e-01	 2.50e-02	 4.08e-02	
 5.82e-01	 0.00e+00	 3.06e-02	 5.71e-01	-2.50e-02	 2.04e-02	 5.71e-01	-2.50e-02	 4.08e-02	 5.71e-01	 2.50e-02	 2.04e-02	 5.71e-01	 2.50e-02	 4.08e-02	 5.92e-01	-2.50e-02	 2.04e-02	 5.92e-01	-2.50e-02	 4.08e-02	 5.92e-01	 2.50e-02	 2.04e-02	 5.92e-01	 2.50e-02	 4.08e-02	
 6.02e-01	 0.00e+00	 3.06e-02	 5.92e-01	-2.50e-02	 2.04e-02	 5.92e-01	-2.50e-02	 4.08e-02	 5.92e-01	 2.50e-02	 2.04e-02	 5.92e-01	 2.50e-02	 4.08e-02	 6.12e-01	-2.50e-02	 2.04e-02	 6.12e-01	-2.50e-02	 4.08e-02	 6.12e-01	 2.50e-02	 2.04e-02	 6.12e-01	 2.50e-02	 4.08e-02	
 6.22e-01	 0.00e+00	 3.06e-02	 6.12e-01	-2.50e-02	 2.04e-02	 6.12e-01	-2.50e-02	 4.08e-02	 6.12e-01	 2.50e-02	 2.04e-02	 6.12e-01	 2.50e-02	 4.08e-02	 6.33e-01	-2.50e-02	 2.04e-02	 6.33e-01	-2.50e-02	 4.08e-02	 6.33e-01	 2.50e-02	 2.04e-02	 6.33e-01	 2.50e-02	 4.08e-02	
 6.43e-01	 0.00e+00	 3.06e-02	 6.33e-01	-2.50e-02	 2.04e-02	 6.33e-01	-2.50e-02	 4.08e-02	 6.33e-01	 2.50e-02	 2.04e-02	 6.33e-01	 2.50e-02	 4.08e-02	 6.53e-01	-2.50e-02	 2.04e-02	 6.53e-01	-2.50e-02	 4.08e-02	 6.53e-01	 2.50e-02	 2.04e-02	 6.53e-01	 2.50e-02	 4.08e-02	
 6.63e-01	 0.00e+00	 3.06e-02	 6.53e-01	-2.50e-02	 2.04e-02	 6.53e-01	-2.50e-02	 4.08e-02	 6.53e-01	 2.50e-02	 2.04e-02	 6.53e-01	 2.50e-02	 4.08e-02	 6.73e-01	-2.50e-02	 2.04e-02	 6.73e-01	-2.50e-02	 4.08e-02	 6.73e-01	 2.50e-02	 2.04e-02	 6.73e-01	 2.50e-02	 4.08e-02	
 6.84e-01	 0.00e+00	 3.06e-02	 6.73e-01	-2.50e-02	 2.04e-02	 6.73e-01	-2.50e-02	 4.08e-02	 6.73e-01	 2.50e-02	 2.04e-02	 6.73e-01	 2.50e-02	 4.08e-02	 6.94e-01	-2.50e-02	 2.04e-02	 6.94e-01	-2.50e-02	 4.08e-02	 6.94e-01	 2.50e-02	 2.04e-02	 6.94e-01	 2.50e-02	 4.08e-02	
 7.04e-01	 0.00e+00	 3.06e-02	 6.94e-01	-2.50e-02	 2.04e-02	 6.94e-01	-2.50e-02	 4.08e-02	 6.94e-01	 2.50e-02	 2.04e-02	 6.94e-01	 2.50e-02	 4.08e-02	 7.14e-01	-2.50e-02	 2.04e-02	 7.14e-01	-2.50e-02	 4.08e-02	 7.14e-01	 2.50e-02	 2.04e-02	 7.14e-01	 2.50e-02	 4.08e-02	
 7.24e-01	 0.00e+00	 3.06e-02	 7.14e-01	-2.50e-02	 2.04e-02	 7.14e-01	-2.50e-02	 4.08e-02	 7.14e-01	 2.50e-02	 2.04e-02	 7.14e-01	 2.50e-02	 4.08e-02	 7.35e-01	-2.50e-02	 2.04e-02	 7.35e-01	-2.50e-02	 4.08e-02	 7.35e-01	 2.50e-02	 2.04e-02	 7.35e-01	 2.50e-02	 4.08e-02	
 7.45e-01	 0.00e+00	 3.06e-02	 7.35e-01	-2.50e-02	 2.04e-02	 7.35e-01	-2.50e-02	 4.08e-02	 7.35e-01	 2.50e-02	 2.04e-02	 7.35e-01	 2.50e-02	 4.08e-02	 7.55e-01	-2.50e-02	 2.04e-02	 7.55e-01	-2.50e-02	 4.08e-02	 7.55e-01	 2.50e-02	 2.04e-02	 7.55e-01	 2.50e-02	 4.08e-02	
 7.65e-01	 0.00e+00	 3.06e-02	 7.55e-01	-2.50e-02	 2.04e-02	 7.55e-01	-2.50e-02	 4.08e-02	 7.55e-01	 2.50e-02	 2.04e-02	 7.55e-01	 2.50e-02	 4.08e-02	 7.76e-01	-2.50e-02	 2.04e-02	 7.76e-01	-2.50e-02	 4.08e-02	 7.76e-01	 2.50e-02	 2.04e-02	 7.76e-01	 2.50e-02	 4.08e-02	
 7.86e-01	 0.00e+00	 3.06e-02	 7.76e-01	-2.50e-02	 2.04e-02	 7.76e-01	-2.50e-02	 4.08e-02	 7.76e-01	 2.50e-02	 2.04e-02	 7.76e-01	 2.50e-02	 4.08e-02	 7.96e-01	-2.50e-02	 2.04e-02	 7.96e-01	-2.50e-02	 4.08e-02	 7.96e-01	 2.50e-02	 2.04e-02	 7.96e-01	 2.50e-02	 4.08e-02	
 8.06e-01	 0.00e+00	 3.06e-02	 7.96e-01	-2.50e-02	 2.04e-02	 7.96e-01	-2.50e-02	 4.08e-02	 7.96e-01	 2.50e-02	 2.04e-02	 7.96e-01	 2.50e-02	 4.08e-02	 8.16e-01	-2.50e-02	 2.04e-02	 8.16e-01	-2.50e-02	 4.08e-02	 8.16e-01	 2.50e-02	 2.04e-02	 8.16e-01	 2.50e-02	 4.08e-02	
 8.27e-01	 0.00e+00	 3.06e-02	 8.16e-01	-2.50e-02	 2.04e-02	 8.16e-01	-2.50e-02	 4.08e-02	 8.16e-01	 2.50e-02	 2.04e-02	 8.16e-01	 2.50e-02	 4.08e-02	 8.37e-01	-2.50e-02	 2.04e-02	 8.37e-01	-2.50e-02	 4.08e-02	 8.37e-01	 2.50e-02	 2.04e-02	 8.37e-01	 2.50e-02	 4.08e-02	
 8.47e-01	 0.00e+00	 3.06e-02	 8.37e-01	-2.50e-02	 2.04e-02	 8.37e-01	-2.50e-02	 4.08e-02	 8.37e-01	 2.50e-02	 2.04e-02	 8.37e-01	 2.50e-02	 4.08e-02	 8.57e-01	-2.50e-02	 2.04e-02	 8.57e-01	-2.50e-02	 4.08e-02	 8.57e-01	 2.50e-02	 2.04e-02	 8.57e-01	 2.50e-02	 4.08e-02	
 8.67e-01	 0.00e+00	 3.06e-02	 8.57e-01	-2.50e-02	 2.04e-02	 8.57e-01	-2.50e-02	 4.08e-02	 8.57e-01	 2.50e-02	 2.04e-02	 8.57e-01	 2.50e-02	 4.08e-02	 8.78e-01	-2.50e-02	 2.04e-02	 8.78e-01	-2.50e-02	 4.08e-02	 8.78e-01	 2.50e-02	 2.04e-02	 8.78e-01	 2.50e-02	 4.08e-02	
 8.88e-01	 0.00e+00	 3.06e-02	 8.78e-01	-2.50e-02	 2.04e-02	 8.78e-01	-2.50e-02	 4.08e-02	 8.78e-01	 2.50e-02	 2.04e-02	 8.78e-01	 2.50e-02	 4.08e-02	 8.98e-01	-2.50e-02	 2.04e-02	 8.98e-01	-2.50e-02	 4.08e-02	 8.98e-01	 2.50e-02	 2.04e-02	 8.98e-01	 2.50e-02	 4.08e-02	
 9.08e-01	 0.00e+00	 3.06e-02	 8.98e-01	-2.50e-02	 2.04e-02	 8.98e-01	-2.50e-02	 4.08e-02	 8.98e-01	 2.50e-02	 2.04e-02	 8.98e-01	 2.50e-02	 4.08e-02	 9.18e-01	-2.50e-02	 2.04e-02	 9.18e-01	-2.50e-02	 4.08e-02	 9.18e-01	 2.50e-02	 2.04e-02	 9.18e-01	 2.50e-02	 4.08e-02	
 9.29e-01	 0.00e+00	 3.06e-02	 9.18e-01	-2.50e-02	 2.04e-02	 9.18e-01	-2.50e-02	 4.08e-02	 9.18e-01	 2.50e-02	 2.04e-02	 9.18e-01	 2.50e-02	 4.08e-02	 9.39e-01	-2.50e-02	 2.04e-02	 9.39e-01	-2.50e-02	 4.08e-02	 9.39e-01	 2.50e-02	 2.04e-02	 9.39e-01	 2.50e-02	 4.08e-02	
 9.49e-01	 0.00e+00	 3.06e-02	 9.39e-01	-2.50e-02	 2.04e-02	 9.39e-01	-2.50e-02	 4.08e-02	 9.39e-01	 2.50e-02	 2.04e-02	 9.39e-01	 2.50e-02	 4.08e-02	 9.59e-01	-2.50e-02	 2.04e-02	 9.59e-01	-2.50e-02	 4.08e-02	 9.59e-01	 2.50e-02	 2.04e-02	 9.59e-01	 2.50e-02	 4.08e-02	
 9.69e-01	 0.00e+00	 3.06e-02	 9.59e-01	-2.50e-02	 2.04e-02	 9.59e-01	-2.50e-02	 4.08e-02	 9.59e-01	 2.50e-02	 2.04e-02	 9.59e-01	 2.50e-02	 4.08e-02	 9.80e-01	-2.50e-02	 2.04e-02	 9.80e-01	-2.50e-02	 4.08e-02	 9.80e-01	 2.50e-02	 2.04e-02	 9.80e-01	 2.50e-02	 4.08e-02	
 9.90e-01	 0.00e+00	 3.06e-02	 9.80e-01	-2.50e-02	 2.04e-02	 9.80e-01	-2.50e-02	 4.08e-02	 9.80e-01	 2.50e-02	 2.04e-02	 9.80e-01	 2.50e-02	 4.08e-02	 1.00e+00	-2.50e-02	 2.04e-02	 1.00e+00	-2.50e-02	 4.08e-02	 1.00e+00	 2.50e-02	 2.04e-02	 1.00e+00	 2.50e-02	 4.08e-02	
 1.02e-02	 0.00e+00	 5.10e-02	 0.00e+00	-2.50e-02	 4.08e-02	 0.00e+00	-2.50e-02	 6.12e-02	 0.00e+00	 2.50e-02	 4.08e-02	 0.00e+00	 2.50e-02	 6.12e-02	 2.04e-02	-2.50e-02	 4.08e-02	 2.04e-02	-2.50e-02	 6.12e-02	 2.04e-02	 2.50e-02	 4.08e-02	 2.04e-02	 2.50e-02	 6.12e-02	
 3.06e-02	 0.00e+00	 5.10e-02	 2.04e-02	-2.50e-02	 4.08e-02	 2.04e-02	-2.50e-02	 6.12e-02	 2.04e-02	 2.50e-02	 4.08e-02	 2.04e-02	 2.50e-02	 6.12e-02	 4.08e-02	-2.50e-02	 4.08e-02	 4.08e-02	-2.50e-02	 6.12e-02	 4.08e-02	 2.50e-02	 4.08e-02	 4.08e-02	 2.50e-02	 6.12e-02	
 5.10e-02	 0.00e+00	 5.10e-02	 4.08e-02	-2.50e-02	 4.08e-02	 4.08e-02	-2.50e-02	 6.12e-02	 4.08e-02	 2.50e-02	 4.08e-02	 4.08e-02	 2.50e-02	 6.12e-02	 6.12e-02	-2.50e-02	 4.08e-02	 6.12e-02	-2.50e-02	 6.12e-02	 6.12e-02	 2.50e-02	 4.08e-02	 6.12e-02	 2.50e-02	 6.12e-02	
 7.14e-02	 0.00e+00	 5.10e-02	 6.12e-02	-2.50e-02	 4.08e-02	 6.12e-02	-2.50e-02	 6.12e-02	 6.12e-02	 2.50e-02	 4.08e-02	 6.12e-02	 2.50e-02	 6.12e-02	 8.16e-02	-2.50e-02	 4.08e-02	 8.16e-02	-2.50e-02	 6.12e-02	 8.16e-02	 2.50e-02	 4.08e-02	 8.16e-02	 2.50e-02	 6.12e-02	
 9.18e-02	 0.00e+00	 5.10e-02	 8.16e-02	-2.50e-02	 4.08e-02	 8.16e-02	-2.50e-02	 6.12e-02	 8.16e-02	 2.50e-02	 4.08e-02	 8.16e-02	 2.50e-02	 6.12e-02	 1.02e-01	-2.50e-02	 4.08e-02	 1.02e-01	-2.50e-02	 6.12e-02	 1.02e-01	 2.50e-02	 4.08e-02	 1.02e-01	 2.50e-02	 6.12e-02	
 1.12e-01	 0.00e+00	 5.10e-02	 1.02e-01	-2.50e-02	 4.08e-02	 1.02e-01	-2.50e-02	 6.12e-02	 1.02e-01	 2.50e-02	 4.08e-02	 1.02e-01	 2.50e-02	 6.12e-02	 1.22e-01	-2.50e-02	 4.08e-02	 1.22e-01	-2.50e-02	 6.12e-02	 1.22e-01	 2.50e-02	 4.08e-02	 1.22e-01	 2.50e-02	 6.12e-02	
 1.33e-01	 0.00e+00	 5.10e-02	 1.22e-01	-2.50e-02	 4.08e-02	 1.22e-01	-2.50e-02	 6.12e-02	 1.22e-01	 2.50e-02	 4.08e-02	 1.22e-01	 2.50e-02	 6.12e-02	 1.43e-01	-2.50e-02	 4.08e-02	 1.43e-01	-2.50e-02	 6.12e-02	 1.43e-01	 2.50e-02	 4.08e-02	 1.43e-01	 2.50e-02	 6.12e-02	
 1.53e-01	 0.00e+00	 5.10e-02	 1.43e-01	-2.50e-02	 4.08e-02	 1.43e-01	-2.50e-02	 6.12e-02	 1.43e-01	 2.50e-02	 4.08e-02	 1.43e-01	 2.50e-02	 6.12e-02	 1.63e-01	-2.50e-02	 4.08e-02	 1.63e-01	-2.50e-02	 6.12e-02	 1.63e-01	 2.50e-02	 4.08e-02	 1.63e-01	 2.50e-02	 6.12e-02	
 1.73e-01	 0.00e+00	 5.10e-02	 1.63e-01	-2.50e-02	 4.08e-02	 1.63e-01	-2.50e-02	 6.12e-02	 1.63e-01	 2.50e-02	 4.08e-02	 1.63e-01	 2.50e-02	 6.12e-02	 1.84e-01	-2.50e-02	 4.08e-02	 1.84e-01	-2.50e-02	 6.12e-02	 1.84e-01	 2.50e-02	 4.08e-02	 1.84e-01	 2.50e-02	 6.12e-02	
 1.94e-01	 0.00e+00	 5.10e-02	 1.84e-01	-2.50e-02	 4.08e-02	 1.84e-01	-2.50e-02	 6.12e-02	 1.84e-01	 2.50e-02	 4.08e-02	 1.84e-01	 2.50e-02	 6.12e-02	 2.04e-01	-2.50e-02	 4.08e-02	 2.04e-01	-2.50e-02	 6.12e-02	 2.04e-01	 2.50e-02	 4.08e-02	 2.04e-01	 2.50e-02	 6.12e-02	
 2.14e-01	 0.00e+00	 5.10e-02	 2.04e-01	-2.50e-02	 4.08e-02	 2.04e-01	-2.50e-02	 6.12e-02	 2.04e-01	 2.50e-02	 4.08e-02	 2.04e-01	 2.50e-02	 6.12e-02	 2.24e-01	-2.50e-02	 4.08e-02	 2.24e-01	-2.50e-02	 6.12e-02	 2.24e-01	 2.50e-02	 4.08e-02	 2.24e-01	 2.50e-02	 6.12e-02	